; npt.mdp - NPT Equilibration (Constant Pressure & Temperature)
define                  = -DPOSRES  ; Continue to position restrain the protein
integrator              = md        ; leap-frog integrator
dt                      = 0.002     ; 2 fs time step
nsteps                  = 50000     ; 100 ps total simulation time
nstxout                 = 500       ; save coordinates every 1.0 ps
nstvout                 = 500       ; save velocities every 1.0 ps
nstenergy               = 500       ; save energies every 1.0 ps
nstlog                  = 500       ; update log file every 1.0 ps
continuation            = yes       ; continuing from NVT
constraint_algorithm    = lincs     ; holonomic constraints 
constraints             = h-bonds   ; bonds involving H are constrained
cutoff-scheme           = Verlet    ; Buffered neighbor searching
ns_type                 = grid      ; search neighboring grid cells
nstlist                 = 10        ; frequency to update neighbor list
rcoulomb                = 1.0       ; short-range electrostatic cutoff (in nm)
rvdw                    = 1.0       ; short-range van der Waals cutoff (in nm)
coulombtype             = PME       ; Particle Mesh Ewald for long-range electrostatics
pme_order               = 4         ; cubic interpolation
fourierspacing          = 0.16      ; grid spacing for FFT
tcoupl                  = V-rescale ; modified Berendsen thermostat
tc-grps                 = System    ; one coupling groups - more accurate
tau_t                   = 0.1       ; time constant, in ps
ref_t                   = 310       ; reference temperature, one for each group, in K
pcoupl                  = Parrinello-Rahman   ; Pressure coupling on in NPT
pcoupltype              = isotropic           ; uniform scaling of box vectors
tau_p                   = 2.0                 ; time constant, in ps
ref_p                   = 1.0                 ; reference pressure, in bar
compressibility         = 4.5e-5              ; isothermal compressibility of water, bar^-1
refcoord_scaling        = com
pbc                     = xyz       ; 3-D PBC
DispCorr                = EnerPres  ; account for cut-off vdW scheme
gen_vel                 = no        ; Velocity generation is off (inheriting from NVT)

