; nvt.mdp - NVT Equilibration (Constant Volume & Temperature)
define                  = -DPOSRES  ; Position restrain the protein! (Protects the structure)
integrator              = md        ; leap-frog integrator
dt                      = 0.002     ; 2 fs time step
nsteps                  = 50000     ; 100 ps total simulation time
nstxout                 = 500       ; save coordinates every 1.0 ps
nstvout                 = 500       ; save velocities every 1.0 ps
nstenergy               = 500       ; save energies every 1.0 ps
nstlog                  = 500       ; update log file every 1.0 ps
continuation            = no        ; first MD run
constraint_algorithm    = lincs     ; holonomic constraints 
constraints             = h-bonds   ; bonds involving H are constrained
cutoff-scheme           = Verlet    ; Buffered neighbor searching
ns_type                 = grid      ; search neighboring grid cells
nstlist                 = 10        ; frequency to update neighbor list
rcoulomb                = 1.0       ; short-range electrostatic cutoff (in nm)
rvdw                    = 1.0       ; short-range van der Waals cutoff (in nm)
coulombtype             = PME       ; Particle Mesh Ewald for long-range electrostatics
pme_order               = 4         ; cubic interpolation
fourierspacing          = 0.16      ; grid spacing for FFT
tcoupl                  = V-rescale ; modified Berendsen thermostat (stable for teaching)
tc-grps                 = System    ; one coupling groups - more accurate
tau_t                   = 0.1       ; time constant, in ps
ref_t                   = 310       ; reference temperature, one for each group, in K
pcoupl                  = no        ; no pressure coupling in NVT
pbc                     = xyz       ; 3-D PBC
DispCorr                = EnerPres  ; account for cut-off vdW scheme
gen_vel                 = yes       ; assign velocities from Maxwell distribution
gen_temp                = 310       ; temperature for Maxwell distribution
gen_seed                = -1        ; generate a random seed

