; md.mdp - Production Run 
integrator              = md        ; leap-frog integrator
dt                      = 0.002     ; 2 fs time step
nsteps                  = 25000000   ; 50 ns (25 million steps) -> Recommended for students
nstxout                 = 0         ; Suppress bulky .trr coordinate output (Save Drive space!)
nstvout                 = 0         ; Suppress velocity output 
nstfout                 = 0         ; Suppress force output
nstxout-compressed      = 5000      ; Save compressed coordinates every 10.0 ps (.xtc file for VMD)
nstenergy               = 5000      ; Save energies every 10.0 ps
nstlog                  = 5000      ; Update log file every 10.0 ps
continuation            = yes       ; Continuing from NPT 
constraint_algorithm    = lincs     ; holonomic constraints 
constraints             = h-bonds   ; bonds involving H are constrained
cutoff-scheme           = Verlet    ; Buffered neighbor searching
ns_type                 = grid      ; search neighboring grid cells
nstlist                 = 10        ; frequency to update neighbor list
rcoulomb                = 1.0       ; short-range electrostatic cutoff (in nm)
rvdw                    = 1.0       ; short-range van der Waals cutoff (in nm)
coulombtype             = PME       ; Particle Mesh Ewald for long-range electrostatics
pme_order               = 4         ; cubic interpolation
fourierspacing          = 0.16      ; grid spacing for FFT
tcoupl                  = V-rescale ; modified Berendsen thermostat
tc-grps                 = System    ; one coupling groups
tau_t                   = 0.1       ; time constant, in ps
ref_t                   = 310       ; reference temperature (300K = room temp)
pcoupl                  = Parrinello-Rahman   ; Pressure coupling on
pcoupltype              = isotropic           ; uniform scaling of box vectors
tau_p                   = 2.0                 ; time constant, in ps
ref_p                   = 1.0                 ; reference pressure, in bar
compressibility         = 4.5e-5              ; isothermal compressibility of water, bar^-1
pbc                     = xyz       ; 3-D PBC
DispCorr                = EnerPres  ; account for cut-off vdW scheme
gen_vel                 = no        ; Velocity generation is off 

